<UPF version="2.0.1">
<PP_INFO>
element : Al
wfc_file : /home/jhwoo/LPS_develop/lps-development/data/ld1/excited/Al.wfc
num_samples : 100
xc : LDA
epsilon : [-0.2879565, -0.10249]
orbital_name : ['3s', '3p']
unbound_UPF : None
occupation : [2.0, 1.0]
other_occupation : None
layer_num : 3
coef : 100
lr : 0.001
plr : 0.0001
tanh_slope : 3.0
beta : 14.0
r_cut : [2.6407, 2.6407]
grid_type : uniform
zed : 13.0
xmin : -8.0
dx : 0.008
end : 100.0
r_train : 3.1407
r_start : 1e-05
fd_order : 2
filtering : None
filter_points : 19
filter_sigma : 500.0
disable_cuda : False
train_on : True
pretrain_on : False
best_model : None
save_model : /home/jhwoo/LPS_develop/lps-development/source/../model/Al_steps_7000_smooth_criteria_10.0_w3_18.577911889879413_obj_type_orbital_E_num_gpus_4_num_samples_100_.pt
pretrain_model_name : ../model/pretrain.pt
lr_decay : 0.999
epochs : 7000
deriv_type : central
spacing : 0.01
weights : [100.0, 0.0, 18.577911889879413, 10.0, 10.0]
smooth_criteria : 10.0
weight_decay : 0.0
ptarget_loss : 0.5
bayes_opt : True
ngpus : 4
</PP_INFO>
<PP_HEADER 
    element="Al"
    pseudo_type="NC"
    relativistic="scalar"
    is_ultrasoft="F"
    is_paw="F"
    is_coulomb="F"
    has_so="F"
    has_wfc="F"
    has_gipaw="F"
    paw_as_gipaw="F"
    core_correction="F"
    functional="LDA"
    z_valence="3.0"
    total_psenergy="0.0"
    wfc_cutoff="0.0"
    rho_cutoff="0.0"
    l_max="0"
    l_max_rho="0"
    l_local="0"
    mesh_size="1895"
    number_of_wfc="2"
    number_of_proj="0"  />
<PP_MESH>
<PP_R>
2.580481753096245e-05 2.601208403179331e-05 2.6221015314881025e-05 2.643162475189901e-05 
2.6643925821923132e-05 2.685793211229434e-05 2.7073657319488258e-05 2.7291115249991788e-05 
2.7510319821186704e-05 2.7731285062240383e-05 2.7954025115003678e-05 2.817855423491599e-05 
2.8404886791917646e-05 2.8633037271369535e-05 2.8863020274980223e-05 2.9094850521740442e-05 
2.9328542848865117e-05 2.9564112212742946e-05 2.9801573689893637e-05 3.0040942477932764e-05 
3.0282233896544483e-05 3.052546338846194e-05 3.0770646520455626e-05 3.1017798984329704e-05 
3.1266936597926204e-05 3.1518075306137444e-05 3.177123118192647e-05 3.2026420427355746e-05 
3.228365937462407e-05 3.2542964487111895e-05 3.280435236043491e-05 3.306783972350623e-05 
3.333344343960705e-05 3.360118050746583e-05 3.387106806234632e-05 3.4143123377144155e-05 
3.4417363863492335e-05 3.46938070728756e-05 3.49724706977537e-05 3.5253372572693755e-05 
3.553653067551164e-05 3.5821963128422584e-05 3.6109688199201005e-05 3.639972430234964e-05 
3.66920900002781e-05 3.698680400449083e-05 3.7283885176784697e-05 3.7583352530456144e-05 
3.788522523151802e-05 3.818952259992623e-05 3.849626411081622e-05 3.880546939574939e-05 
3.9117158243969515e-05 3.9431350603669275e-05 3.974806658326693e-05 4.006732645269328e-05 
4.038915064468895e-05 4.0713559756112075e-05 4.104057454925651e-05 4.137021595318065e-05 
4.170250506504685e-05 4.2037463151471674e-05 4.237511164988707e-05 4.271547216991206e-05 
4.3058566494736246e-05 4.340441658251337e-05 4.375304456776726e-05 4.4104472762807814e-05 
4.445872365915962e-05 4.481581992900082e-05 4.5175784426614715e-05 4.5538640189851865e-05 
4.590441044160514e-05 4.6273118591295335e-05 4.6644788236370004e-05 4.7019443163813255e-05 
4.7397107351668333e-05 4.777780497057216e-05 4.81615603853023e-05 4.8548398156336274e-05 
4.893834304142347e-05 4.933141999716965e-05 4.972765418063414e-05 5.012707095093994e-05 
5.052969587089667e-05 5.093555470863665e-05 5.1344673439264005e-05 5.1757078246517175e-05 
5.217279552444457e-05 5.259185187909389e-05 5.3014274130214857e-05 5.3440089312975726e-05 
5.3869324679693554e-05 5.430200770157833e-05 5.4738166070491116e-05 5.517782770071642e-05 
5.562102073074865e-05 5.606777352509298e-05 5.651811467608077e-05 5.6972073005699375e-05 
5.742967756743686e-05 5.789095764814137e-05 5.8355942769895516e-05 5.8824662691905804e-05 
5.929714741240723e-05 5.97734271705832e-05 6.0253532448500784e-05 6.073749397306165e-05 
6.122534271796857e-05 6.171710990570775e-05 6.221282700954703e-05 6.27125257555503e-05 
6.321623812460781e-05 6.372399635448317e-05 6.42358329418764e-05 6.475178064450377e-05 
6.527187248319438e-05 6.579614174400343e-05 6.632462198034257e-05 6.685734701512729e-05 
6.739435094294167e-05 6.793566813222039e-05 6.848133322744833e-05 6.903138115137783e-05 
6.958584710726379e-05 7.014476658111663e-05 7.070817534397346e-05 7.127610945418741e-05 
7.18486052597354e-05 7.242569940054438e-05 7.300742881083637e-05 7.359383072149216e-05 
7.41849426624342e-05 7.478080246502851e-05 7.53814482645058e-05 7.598691850240227e-05 
7.659725192901983e-05 7.721248760590608e-05 7.783266490835438e-05 7.845782352792374e-05 
7.908800347497921e-05 7.972324508125253e-05 8.036358900242328e-05 8.100907622072106e-05 
8.165974804754808e-05 8.231564612612342e-05 8.297681243414795e-05 8.36432892864911e-05 
8.431511933789886e-05 8.499234558572389e-05 8.567501137267717e-05 8.636316038960211e-05 
8.70568366782707e-05 8.775608463420212e-05 8.846094900950429e-05 8.91714749157378e-05 
8.988770782680318e-05 9.060969358185121e-05 9.133747838821665e-05 9.207110882437553e-05 
9.281063184292618e-05 9.355609477359422e-05 9.430754532626164e-05 9.506503159402031e-05 
9.582860205624994e-05 9.659830558172072e-05 9.737419143172105e-05 9.81563092632101e-05 
9.894470913199613e-05 9.973944149593978e-05 0.00010054055721818366 0.0001013481075704074 
0.00010216214423610921 0.00010298271931391357 0.0001038098853209055 0.00010464369519599183 
0.00010548420230328908 0.00010633146043553926 0.0001071855238175517 0.0001080464471096747 
0.00010891428541129248 0.00010978909426435292 0.00011067092965692083 0.00011155984802676275 
0.00011245590626495736 0.00011335916171953816 0.00011426967219916215 0.00011518749597681121 
0.00011611269179352001 0.00011704531886213701 0.00011798543687111254 0.00011893310598832049 
0.00011988838686490738 0.00012085134063917583 0.00012182202894049566 0.0001228005138932499 
0.0001237868581208091 0.0001247811247495409 0.00012578337741284853 0.00012679368025524495 
0.00012781209793645646 0.00012883869563556276 0.00012987353905516655 0.00013091669442560035 
0.0001319682285091635 0.0001330282086043967 0.0001340967025503874 0.00013517377873111338 
0.0001362595060798173 0.00013735395408342045 0.00013845719278696855 0.00013956929279811513 
0.00014069032529164058 0.0001418203620140071 0.0001429594752879506 0.00014410773801710948 
0.00014526522369069035 0.00014643200638817137 0.0001476081607840435 0.00014879376215258948 
0.0001499888863727016 0.00015119360993273788 0.00015240800993541738 0.00015363216410275483 
0.00015486615078103472 0.00015611004894582569 0.00015736393820703487 0.00015862789881400299 
0.0001599020116606403 0.00016118635829060388 0.00016248102090251647 0.0001637860823552271 
0.00016510162617311425 0.0001664277365514313 0.0001677644983616951 0.00016911199715711778 
0.0001704703191780822 0.00017183955135766134 0.00017321978132718208 0.00017461109742183354 
0.0001760135886863207 0.00017742734488056328 0.00017885245648544017 0.00018028901470858055 
0.0001817371114902011 0.00018319683950899005 0.00018466829218803893 0.00018615156370082141 
0.0001876467489772206 0.00018915394370960459 0.00019067324435895064 0.00019220474816101894 
0.0001937485531325756 0.00019530475807766573 0.00019687346259393698 0.00019845476707901384 
0.00020004877273692318 0.0002016555815845711 0.00020327529645827234 0.00020490802102033173 
0.0002065538597656785 0.00020821291802855413 0.00020988530198925374 0.0002115711186809217 
0.00021327047599640163 0.00021498348269514183 0.0002167102484101557 0.0002184508836550384 
0.00022020549983103977 0.00022197420923419396 0.00022375712506250646 0.00022555436142319892 
0.00022736603334001185 0.00022919225676056634 0.00023103314856378457 0.0002328888265673704 
0.00023475940953534942 0.0002366450171856701 0.00023854577019786566 0.00024046179022077768 
0.00024239319988034164 0.00024434012278743496 0.00024630268354578833 0.0002482810077599601 
0.0002502752220433753 0.0002522854540264287 0.0002543118323646534 0.00025635448674695473 
0.00025841354790391043 0.00026048914761613707 0.0002625814187227254 0.00026469049512973955 
0.0002668165118187903 0.0002689596048556706 0.00027111991139906717 0.00027329756970933525 
0.00027549271915735103 0.00027770550023342743 0.0002799360545563096 0.00028218452488223457 
0.0002844510551140717 0.0002867357903105285 0.0002890388766954383 0.00029136046166711497 
0.00029370069380779007 0.0002960597228931184 0.0002984376999017677 0.00030083477702507713 
0.00030325110767680187 0.0003056868465029273 0.0003081421493915708 0.0003106171734829542 
0.0003131120771794653 0.00031562702015579117 0.00031816216336914176 0.00032071766906954704 
0.0003232937008102452 0.00032589042345814584 0.0003285080032043858 0.00033114660757496125 
0.00033380640544145376 0.0003364875670318334 0.0003391902639413583 0.00034191466914355206 
0.00034466095700127873 0.0003474293032778974 0.00035021988514851593 0.0003530328812113253 
0.00035586847149903503 0.00035872683749039005 0.0003616081621217908 0.0003645126297989959 
0.00036744042640892924 0.00037039173933157217 0.00037336675745196023 0.0003763656711722674 
0.0003793886724239966 0.0003824359546802586 0.0003855077129681592 0.00038860414388127606 
0.0003917254455922458 0.0003948718178654419 0.0003980434620697654 0.00040124058119152647 
0.0004044633798474415 0.00040771206429772325 0.00041098684245928675 0.00041428792391905075 
0.00041761551994735685 0.0004209698435114852 0.0004243511092892905 0.00042775953368293497 
0.0004311953348327445 0.0004346587326311648 0.0004381499487368375 0.00044166920658878476 
0.0004452167314207105 0.00044879275027541487 0.000452397492019325 0.00045603118735714306 
0.000459694068846611 0.00046338637091339433 0.0004671083298660857 0.0004708601839113284 
0.00047464217316906215 0.0004784545396878902 0.0004822975274605711 0.0004861713824396341 
0.00049007635255312 0.0004940126877204492 0.0004979806398684157 0.0005019804629473116 
0.0005060124129471793 0.0005100767479141947 0.0005141737279671832 0.0005183036153142667 
0.000522466674269645 0.0005266631712705121 0.0005308933748941087 0.0005351575558749104 
0.0005394559871219558 0.0005437889437363114 0.0005481567030286801 0.0005525595445371471 
0.0005569977500450719 0.0005614716035991218 0.0005659813915274514 0.0005705274024580276 
0.0005751099273371015 0.0005797292594478296 0.0005843856944290437 0.0005890795302941719 
0.0005938110674503119 0.0005985806087174567 0.0006033884593478754 0.0006082349270456494 
0.0006131203219863656 0.0006180449568369677 0.0006230091467757672 0.0006280132095126146 
0.0006330574653092331 0.0006381422369997155 0.0006432678500111855 0.0006484346323846255 
0.000653642914795871 0.0006588930305767739 0.0006641853157365364 0.0006695201089832151 
0.0006748977517453987 0.0006803185881940597 0.0006857829652645811 0.0006912912326789602 
0.0006968437429681923 0.0007024408514948306 0.0007080829164757319 0.0007137702990049802 
0.000719503363076999 0.0007252824756098457 0.0007311080064686946 0.0007369803284895106 
0.0007428998175029052 0.0007488668523581985 0.0007548818149476549 0.0007609450902309363 
0.0007670570662597274 0.0007732181342025835 0.0007794286883699527 0.0007856891262394245 
0.0007919998484811568 0.0007983612589835299 0.0008047737648789842 0.000811237776570089 
0.0008177537077557959 0.0008243219754579278 0.0008309430000478567 0.0008376172052734193 
0.0008443450182860252 0.0008511268696680067 0.0008579631934601639 0.0008648544271895562 
0.0008718010118974913 0.0008788033921677649 0.0008858620161551011 0.0008929773356138478 
0.0009001498059268756 0.0009073798861347364 0.0009146680389650276 0.0009220147308620217 
0.0009294204320165042 0.0009368856163958804 0.0009444107617744951 0.0009519963497642247 
0.0009596428658452863 0.0009673507993973226 0.0009751206437307083 0.0009829528961181363 
0.0009908480578264295 0.0009988066341486356 0.0010068291344363521 0.0010149160721323394 
0.0010230679648033667 0.0010312853341733514 0.001039568706156734 0.0010479186108921527 
0.001056335582776357 0.0010648201604984242 0.0010733728870742207 0.0010819943098811706 
0.0010906849806932727 0.0010994454557164287 0.0011082762956240268 0.0011171780655928397 
0.001126151335339179 0.001135196679155376 0.0011443146759465182 0.0011535059092675167 
0.001162770967360437 0.0011721104431921638 0.0011815249344923342 0.0011910150437916087 
0.0012005813784602176 0.0012102245507468487 0.0012199451778178183 0.001229743881796577 
0.0012396212898035243 0.001249578033996144 0.0012596147516094629 0.0012697320849968342 
0.001279930681671048 0.0012902111943457729 0.0013005742809773292 0.001311020604806798 
0.0013215508344024704 0.001332165643702635 0.0013428657120587101 0.0013536517242787225 
0.0013645243706711364 0.001375484347089032 0.0013865323549746406 0.0013976691014042386 
0.0014088952991333985 0.0014202116666426068 0.001431618928183247 0.001443117813823951 
0.0014547090594973252 0.001466393407047049 0.0014781716042753536 0.0014900444049908825 
0.0015020125690569336 0.001514076862440092 0.001526238057259253 0.0015384969318350354 
0.001550854270739597 0.001563310864846845 0.0015758675113830543 0.0015885250139778897 
0.0016012841827158372 0.0016141458341880515 0.0016271107915446167 0.0016401798845472292 
0.0016533539496223018 0.0016666338299144963 0.0016800203753406843 0.0016935144426443423 
0.0017071168954503834 0.001720828604320431 0.001734650446808532 0.0017485833075173243 
0.0017626280781546486 0.00177678565759062 0.0017910569519151546 0.0018054428744959604 
0.0018199443460369933 0.0018345622946373814 0.0018492976558508248 0.001864151372745471 
0.0018791243959642714 0.0018942176837858228 0.001909432202185697 0.0019247689248982657 
0.0019402288334790171 0.0019558129173673773 0.0019715221739500344 0.0019873576086247725 
0.002003320234864815 0.00201941107428369 0.0020356311567006134 0.002051981520206396 
0.0020684632112298825 0.002085077284604925 0.00210182480363789 0.002118706840175712 
0.0021357244746744927 0.002152878796268648 0.0021701709028406147 0.0021876019010911166 
0.002205172906609992 0.0022228850439475903 0.002240739446686748 0.0022587372575153344 
0.0022768796282993855 0.0022951677201568247 0.0023136027035317724 0.0023321857582694577 
0.0023509180736917272 0.002369800848673161 0.0023888352917178033 0.002408022621036507 
0.0024273640646248966 0.0024468608603419643 0.002466514255989291 0.002486325509390907 
0.0025062958884737906 0.002526426671349021 0.0025467191463935733 0.002567174612332777 
0.0025877943783234334 0.0026085797640376033 0.002629532099747071 0.002650652726408471 
0.002671942995749119 0.0026934042703535208 0.002715037923750575 0.002736845340501485 
0.002758827916288365 0.0027809870580035702 0.0028033241838397328 0.0028258407233805304 
0.002848538117692181 0.0028714178194156666 0.002894481292859708 0.0029177300140944768 
0.0029411654710460684 0.0029647891635917276 0.0029886026036558396 0.0030126073153066975 
0.0030368048348540402 0.003061196710947379 0.003085784504675109 0.0031105697896644216 
0.003135554152182016 0.003160739191235621 0.0031861265186763346 0.0032117177593017753 
0.003237514550960081 0.003263518544654722 0.0032897314046501707 0.0033161548085784143 
0.0033427904475463238 0.003369640026243884 0.003396705263053297 0.003423987890158957 
0.00345148965365831 0.0034792123136736094 0.0035071576444645567 0.0035353274345418617 
0.0035637234867817056 0.0035923476185411238 0.0036212016617743195 0.0036502874631499076 
0.0036796068841691053 0.0037091618012848647 0.0037389541060219695 0.0037689857050980926 
0.003799258520545824 0.003829774489835688 0.0038605355660001335 0.0038915437177585352 
0.003922800929643189 0.003954309202126327 0.003986070551748141 0.004018087011245849 
0.004050360629683785 0.0040828934725845485 0.004115687622061188 0.004148745176950463 
0.004182068252947171 0.00421565898273955 0.004249519516145773 0.004283652020251535 
0.0043180586795487485 0.004352741696075354 0.004387703289556248 0.004422945697545345 
0.004458471175568787 0.004494281997269294 0.004530380454551678 0.004566768857729527 
0.004603449535673063 0.004640424835958197 0.0046776971250167675 0.004715268788287996 
0.004753142230371157 0.004791319875179471 0.004829804166095237 0.00486859756612621 
0.0049077025580632335 0.004947121644639139 0.004986857348688922 0.005026912213311206 
0.0050672888020309986 0.005107989698963759 0.005149017508980783 0.005190374857875919 
0.005232064392533608 0.005274088781098303 0.005316450713145214 0.005359152899852452 
0.005402198074174542 0.005445588991017333 0.005489328427414314 0.005533419182704345 
0.005577864078710813 0.0056226659599222335 0.005667827693674297 0.005713352170333377 
0.0057592423034815215 0.005805501030102914 0.005852131310771848 0.005899136129842204 
0.005946518495638445 0.005994281440648156 0.006042428021716121 0.006090961320239964 
0.006139884442367353 0.006189200519194805 0.006238912706968072 0.006289024187284137 
0.006339538167294847 0.006390457879912164 0.0064417865840150764 0.006493527564658167 
0.006545684133281858 0.006598259627924345 0.006651257413435228 0.006704680881690872 
0.00675853345181148 0.006812818570379923 0.0068675397116623165 0.006922700377830381 
0.006978304099185581 0.007034354434385061 0.007090854970669407 0.007147809324092226 
0.007205221139751571 0.007263094092023254 0.007321431884795968 0.007380238251708364 
0.007439516956387995 0.007499271792692196 0.007559506584950885 0.007620225188211329 
0.00768143148848486 0.007743129402995589 0.007805322880431103 0.007868015901195187 
0.007931212477662571 0.007994916654435717 0.008059132508603684 0.008123864150003058 
0.008189115721480985 0.00825489139916031 0.008321195392706857 0.008388031945598845 
0.00845540533539847 0.008523319874025683 0.00859177990803413 0.008660789818889358 
0.008730354023249218 0.008800476973246533 0.00887116315677404 0.008942417097771608 
0.009014243356515787 0.00908664652991165 0.009159631251787011 0.009233202193188978 
0.009307364062682916 0.009382121606653788 0.009457479609609923 0.009533442894489232 
0.009610016322967877 0.009687204795771419 0.009765013252988463 0.00984344667438683 
0.009922510079732261 0.010002208529109685 0.010082547123247068 0.010163531003841854 
0.010245165353890046 0.010327455398017911 0.010410406402816362 0.010494023677178018 
0.01057831257263698 0.010663278483711331 0.01074892684824838 0.010835263147772693 
0.010922292907836906 0.01101002169837537 0.011098455134060629 0.011187598874662745 
0.01127745862541155 0.01136804013736176 0.011459349207761064 0.011551391680421129 
0.011644173446091624 0.011737700442837222 0.011831978656417639 0.011927014120670725 
0.012022812917898628 0.012119381179257073 0.012216725085147746 0.012314850865613857 
0.012413764800738842 0.012513473221048317 0.012613982507915213 0.012715299093968197 
0.012817429463503362 0.012920380152899213 0.013024157751035019 0.013128768899712475 
0.013234220294080813 0.01334051868306526 0.013447670869798997 0.013555683712058552 
0.01366456412270269 0.013774319070114867 0.013884955578649173 0.013996480729079922 
0.014108901659054807 0.01422222556355172 0.014336459695339233 0.014451611365440766 
0.014567687943602517 0.014684696858765105 0.014802645599539043 0.014921541714683998 
0.015041392813591922 0.015162206566774056 0.015283990706351842 0.01540675302655178 
0.015530501384204266 0.01565524369924643 0.015780987955229017 0.015907742199827327 
0.01603551454535628 0.016164313169289603 0.016294146314783188 0.01642502229120267 
0.016556949474655205 0.016689936308525572 0.016823991304016527 0.016959123040693542 
0.017095340167033884 0.01723265140098014 0.01737106553049815 0.01751059141413945 
0.017651237981608215 0.017793014234332768 0.017935929246041683 0.01807999216334449 
0.01822521220631707 0.018371598669091736 0.018519160920452075 0.018667908404432547 
0.01881785064092289 0.018968997226277432 0.019121357833929216 0.019274942215009146 
0.01942976019897003 0.019585821694215685 0.01974313668873508 0.019901715250741556 
0.020061567529317217 0.02022270375506243 0.020385134240750682 0.020548869381988483 
0.02071391965788076 0.02088029563170151 0.021048007951569844 0.021217067351131484 
0.0213874846502457 0.021559270755677803 0.021732436661797194 0.021906993451280957 
0.022082952295823202 0.022260324456850042 0.022439121286240333 0.022619354227052177 
0.02280103481425531 0.022984174675469322 0.02316878553170785 0.0233548791981287 
0.023542467584790047 0.023731562697412667 0.023922176638148312 0.024114321606354253 
0.024308009899374036 0.024503253913324533 0.02470006614388928 0.024898459187118208 
0.025098445740233805 0.02530003860244373 0.025503250675759977 0.025708094965824598 
0.02591458458274208 0.026122732741918394 0.026332552764906765 0.026544058080260287 
0.02675726222439134 0.026972178842437917 0.027188821689136937 0.027407204629704526 
0.02762734164072343 0.027849246811037495 0.028072934342653365 0.02829841855164941 
0.028525713869091973 0.02875483484195896 0.028985796134070835 0.029218612527029134 
0.029453298921162465 0.029689870336480167 0.029928341913633565 0.030168728914885 
0.030411046725084604 0.030655310852654938 0.030901536930583545 0.031149740717423456 
0.031399938098301744 0.0316521450859362 0.03190637782166011 0.032162652576455335 
0.03242098575199366 0.03268139388168651 0.032943893631743056 0.0332085018022369 
0.033475235328181294 0.033744111280612915 0.03401514686768452 0.03428835943576618 
0.034563766470555514 0.03484138559819676 0.03512123458640883 0.03540333134562251 
0.03568769393012668 0.0359743405392238 0.03626328951839469 0.03655455936047266 
0.036848168706827014 0.037144136348556143 0.03744248122769014 0.0377432224384031 
0.038046379228235165 0.03835197099932436 0.03866001730964835 0.03897053787427614 
0.03928355256662985 0.03959908141975664 0.039917144627610805 0.04023776254634623 
0.040560955695619134 0.040886744759901394 0.04121515058980432 0.041546194203413135 
0.041879896787632105 0.04221627969954051 0.042555364467759545 0.0428971727938301 
0.04324172655360174 0.04358904779863268 0.04393915875760116 0.044292081837728065 
0.04464783962621097 0.04500645489166978 0.0453679505856039 0.045732349843861125 
0.046099675988118365 0.04646995252737423 0.04684320315945363 0.04721945177252441 
0.047598722446626246 0.04798103945521172 0.0483664272666999 0.04875491054604226 
0.049146514156301266 0.04954126316024166 0.04993918282193444 0.05034029860837376 
0.050744636191106876 0.051152221447877094 0.05156308046427997 0.051977239535432804 
0.052394725167657495 0.052815564080177034 0.053239783206825445 0.05366740969777165 
0.05409847092125703 0.05453299446534701 0.05497100813969675 0.05541253997733091 
0.05585761823643775 0.05630627140217788 0.056758528188507004 0.0572144175400138 
0.057673968633772395 0.058137210881209635 0.058604173929987485 0.05907488766590046 
0.059549382214788324 0.06002768794446416 0.06050983546665794 0.06099585563897566 
0.061485779566874225 0.06197963860565227 0.06247746436245683 0.06297928869830628 
0.0634851437301294 0.06399506183282089 0.06450907564131338 0.06502721805266605 
0.06554952222817009 0.06607602159547102 0.06660674985070807 0.0671417409606707 
0.0676810291649726 0.06822464897824287 0.06877263519233517 0.06932502287855422 
0.06988184738990047 0.07044314436333274 0.07100894972204891 0.07157929967778505 
0.07215423073313304 0.07273377968387663 0.07331798362134652 0.07390687993479408 
0.07450050631378444 0.0750989007506084 0.07570210154271424 0.07631014729515852 
0.07692307692307693 0.07754092965417494 0.07816374503123807 0.07879156291466326 
0.07942442348500912 0.0800623672455684 0.08070543502495928 0.0813536679797394 
0.08200710759703887 0.08266579569721652 0.08332977443653528 0.08399908630986143 
0.08467377415338301 0.08535388114735258 0.08603945081884964 0.08673052704456745 
0.08742715405362003 0.08812937643037408 0.08883723911730106 0.08955078741785488 
0.09027006699937004 0.09099512389598555 0.09172600451158998 0.09246275562279252 
0.09320542438191544 0.093954058320013 0.09470870534991292 0.09546941376928236 
0.09623623226372019 0.09700920990987141 0.09778839617856962 0.09857384093800156 
0.09936559445690032 0.10016370740776102 0.10096823087008527 0.10177921633364892 
0.10259671570179883 0.10342078129477322 0.1042514658530517 0.10508882254072915 
0.1059329049489198 0.10678376709918551 0.10764146344699467 0.10850604888520597 
0.1093775787475829 0.1102561088123338 0.11114169530568305 0.11203439490546808 
0.11293426474476845 0.11384136241556059 0.11475574597240544 0.1156774739361624 
0.11660660529773612 0.11754319952185048 0.11848731655085597 0.11943901680856425 
0.1203983612041171 0.12136541113588285 0.12234022849538768 0.12332287567127488 
0.12431341555329954 0.1253119115363518 0.12631842752451586 0.12733302793515802 
0.12835577770305134 0.12938674228452968 0.1304259876616785 0.13147358034655632 
0.13252958738545292 0.13359407636317885 0.13466711540739246 0.13574877319295836 
0.13683911894634454 0.1379382224500509 0.13904615404707735 0.1401629846454237 
0.14128878572263004 0.14242362933034908 0.1435675880989595 0.14472073524221252 
0.14588314456191942 0.14705489045267292 0.14823604790661046 0.1494266925182118 
0.150626900489139 0.1518367486331113 0.15305631438082348 0.15428567578489907 
0.15552491152488812 0.15677410091230043 0.15803332389568375 0.1593026610657383 
0.16058219366047674 0.16187200357042136 0.16317217334384718 0.1644827861920629 
0.16580392599473887 0.16713567730527268 0.16847812535620343 0.16983135606466399 
0.17119545603788225 0.17257051257872144 0.1739566136912702 0.17535384808647217 
0.17676230518780625 0.17818207513700704 0.1796132487998365 0.18105591777189695 
0.1825101743844957 0.18397611171055167 0.18545382357055473 0.18694340453856773 
0.18844494994828162 0.1899585558991146 0.19148431926236478 0.1930223376874075 
0.19457270960794767 0.1961355342483167 0.1977109116298257 0.19929894257716413 
0.2008997287248554 0.20251337252375856 0.20413997724762836 0.20577964699972157 
0.20743248671946274 0.20909860218915732 0.2107781000407649 0.21247108776272045 
0.21417767370681678 0.21589796709513612 0.21763207802704324 0.219380117486229 
0.2211421973478161 0.22291843038551648 0.22470893027885158 0.22651381162042494 
0.22833318992325927 0.2301671816281862 0.23201590411130163 0.23387947569147471 
0.23575801563792348 0.2376516441778449 0.23956048250411272 0.24148465278303055 
0.24342427816215384 0.24537948277816807 0.24735039176483695 0.24933713126100743 
0.2513398284186863 0.2533586114111744 0.25539360944127315 0.25744495274955026 
0.2595127726226785 0.26159720140183473 0.2636983724911727 0.2658164203663597 
0.26795148058318197 0.270103689786223 0.27227318571760545 0.27446010722581043 
0.2766645942745599 0.27888678795177857 0.2811268304786192 0.2833848652185691 
0.2856610366866214 0.287955490558528 0.2902683736801188 0.29259983407670415 
0.29495002096254425 0.2973190847504029 0.29970717706117017 0.3021144507335702 
0.30454105983393853 0.3069871596660871 0.3094529067812388 0.311938458988052 
0.31444397536271507 0.3169696162591323 0.31951554331918214 0.32208191948306647 
0.32466890899973466 0.32727667743739997 0.3299053916941314 0.3325552200085398 
0.3352263319705405 0.33791889853221224 0.34063309201873254 0.34336908613941236 
0.346127055998808 0.34890717810793315 0.35170963039555053 0.3545345922195643 
0.3573822443784943 0.3602527691230518 0.3631463501677991 0.36606317270291205 
0.3690034234060271 0.3719672904541943 0.3749549635359149 0.3779666338632875 
0.3810024941842395 0.384062738794869 0.3871475635518745 0.3902571658850947 
0.39339174481013883 0.3965515009411295 0.3997366365035363 0.4029473553471237 
0.40618386295899234 0.40944636647673543 0.4127350747016903 0.41605019811230726 
0.41939194887761483 0.4227605408708041 0.4261561896829109 0.4295791126366198 
0.43302952880016665 0.43650765900136523 0.44001372584173404 0.4435479537107492 
0.447110568800199 0.4507017991186669 0.45432187450611755 0.4579710266486129 
0.461649489093134 0.4653574972625346 0.46909528847060156 0.47286310193724973 
0.4766611788038252 0.4804897621485458 0.4843490970020505 0.488239430363089 
0.4921610112143226 0.4961140905382662 0.500098921333344 0.5041157586300887 
0.5081648595074568 0.5122464831092883 0.516360890660885 0.5205083454857364 
0.5246891130223653 0.5289034608413229 0.533151658662306 0.5374339783714274 
0.541750694038608 0.5461020819351261 0.5504884205512902 0.5549099906142712 
0.5593670751060601 0.5638599592815877 0.5683889306869732 0.572954279177934 
0.5775562969383299 0.5821952784988706 0.5868715207559574 0.5915853229906927 
0.5963369868880266 0.6011268165560726 0.605955118545562 0.6108222018694728 
0.6157283780227965 0.6206739610024836 0.6256592673275312 0.6306846160592474 
0.6357503288216647 0.6408567298221308 0.6460041458720506 0.6511929064078106 
0.6564233435118539 0.6616957919339428 0.6670105891125735 0.6723680751965821 
0.6777685930669043 0.6832124883585293 0.688700109482612 0.6942318076487793 
0.6998079368876 0.705428854073251 0.7110949189463482 0.7168064941369804 
0.7225639451879065 0.7283676405779602 0.734217951745629 0.7401152531128218 
0.7460599221088415 0.7520523391945306 0.7580928878866307 0.7641819547823171 
0.770319929583952 0.7765072051240155 0.7827441773902568 0.7890312455510268 
0.7953688119808368 0.8017572822860985 0.808197065331095 0.8146885732641365 
0.8212322215439494 0.8278284289662541 0.83447761769058 0.8411802132672724 
0.8479366446647388 0.8547473442968921 0.861612748050836 0.8685332953147517 
0.8755094290060288 0.8825415955996021 0.8896302451565368 0.8967758313528211 
0.9039788115084136 0.9112396466164998 0.9185588013730084 0.9259367442063385 
0.9333739473073532 0.9408708866595862 0.9484280420697183 0.9560458971982722 
0.9637249395905794 0.9714656607079708 0.9792685559592436 0.9871341247323536 
0.9950628704263911 1.0030553004837826 1.011111926422784 1.0192332638702015 
1.0274198325944075 1.0356721565385913 1.0439907638543053 1.052376186935254 
1.06082896245138 1.0693496313831983 1.0779387390564323 1.0865968351769015 
1.0953244738657162 1.104122213694728 1.1129906177222926 1.1219302535292912 