<UPF version="2.0.1">
<PP_INFO>
element : Si
wfc_file : /home/jhwoo/LPS_develop/lps-development/data/ld1/jhwoo/Si.wfc
relativistic : scalar
nlcc_file : None
num_samples : 40
xc : LDA
epsilon : [-0.39999412, -0.1531968]
orbital_name : ['3s', '3p']
unbound_UPF : None
occupation : [2.0, 2.0]
other_occupation : None
layer_num : 3
coef : 100
lr : 0.001
plr : 0.0001
beta : 14.0
r_cut : [2.1403, 2.1403]
grid_type : uniform
zed : 14.0
xmin : -8.0
dx : 0.008
end : 100.0
r_train : 2.6403
r_start : 1e-05
fd_order : 2
disable_cuda : False
train_on : True
pretrain_on : False
best_model : None
save_model : /home/jhwoo/LPS_develop/lps-development/source/../model/Si_steps_7000_smooth_criteria_10.0_w3_35.0619487362087_obj_type_orbital_E_num_gpus_4_num_samples_40_.pt
pretrain_model_name : ../model/pretrain.pt
lr_decay : 0.999
epochs : 7000
deriv_type : central
spacing : 0.01
weights : [100.0, 0.0, 35.0619487362087, 10.0, 10.0]
smooth_criteria : 10.0
weight_decay : 0.0
ptarget_loss : 0.5
bayes_opt : True
ngpus : 4
</PP_INFO>
<PP_HEADER 
    element="Si"
    pseudo_type="NC"
    relativistic="scalar"
    is_ultrasoft="F"
    is_paw="F"
    is_coulomb="F"
    has_so="F"
    has_wfc="F"
    has_gipaw="F"
    paw_as_gipaw="F"
    core_correction="F"
    functional="LDA"
    z_valence="4.0"
    total_psenergy="0.0"
    wfc_cutoff="0.0"
    rho_cutoff="0.0"
    l_max="0"
    l_max_rho="0"
    l_local="0"
    mesh_size="1904"
    number_of_wfc="2"
    number_of_proj="0"  />
<PP_MESH>
<PP_R>
2.3961616278750847e-05 2.415407802952236e-05 2.434808564953238e-05 2.4543651555334796e-05 
2.474078826321434e-05 2.4939508389987602e-05 2.5139824653810524e-05 2.5341749874992376e-05 
2.5545296976816223e-05 2.575047898636607e-05 2.595730903536056e-05 2.616580036099342e-05 
2.637596630678067e-05 2.658782032341457e-05 2.6801375969624492e-05 2.7016646913044695e-05 
2.7233646931089036e-05 2.7452389911832738e-05 2.7672889854901233e-05 2.7895160872366138e-05 
2.811921718964845e-05 2.834507314642894e-05 2.857274319756594e-05 2.880224191402044e-05 
2.9033583983788622e-05 2.9266784212841916e-05 2.950185752607458e-05 2.9738818968258903e-05 
2.9977683705008066e-05 3.0218467023746757e-05 3.046118433468956e-05 3.070585117182722e-05 
3.095248319392083e-05 3.120109618550399e-05 3.1451706057893013e-05 3.1704328850205286e-05 
3.195898073038574e-05 3.2215677996241624e-05 3.247443707648558e-05 3.273527453178706e-05 
3.2998207055832235e-05 3.32632514763924e-05 3.353042475640093e-05 3.379974399503895e-05 
3.407122642882966e-05 3.434488943274148e-05 3.462075052130008e-05 3.4898827349709274e-05 
3.517913771498102e-05 3.5461699557074356e-05 3.574653096004363e-05 3.603365015319586e-05 
3.632307551225741e-05 3.6614825560550035e-05 3.690891897017643e-05 3.720537456321519e-05 
3.7504211312925456e-05 3.7805448344961215e-05 3.8109104938595334e-05 3.8415200527953465e-05 
3.872375470325779e-05 3.903478721208084e-05 3.9348317960609424e-05 3.9664367014918346e-05 
3.998295460225508e-05 4.0304101112333844e-05 4.062782709864103e-05 4.095415327975011e-05 
4.128310054064822e-05 4.161468993407219e-05 4.194894268185652e-05 4.228588017629102e-05 
4.2625523981490486e-05 4.296789583477424e-05 4.3313017648057864e-05 4.3660911509255165e-05 
4.401159968369202e-05 4.436510461553129e-05 4.472144892920928e-05 4.508065543088368e-05 
4.544274710989323e-05 4.580774714022896e-05 4.617567888201742e-05 4.6546565883015656e-05 
4.6920431880118336e-05 4.729730080087689e-05 4.767719676503086e-05 4.806014408605167e-05 
4.844616727269853e-05 4.883529103058718e-05 4.922754026377094e-05 4.962294007633461e-05 
5.002151577400116e-05 5.0423292865751305e-05 5.082829706545604e-05 5.123655429352239e-05 
5.164809067855231e-05 5.206293255901491e-05 5.248110648493214e-05 5.2902639219577995e-05 
5.332755774119137e-05 5.3755889244702704e-05 5.418766114347441e-05 5.462290107105539e-05 
5.506163688294957e-05 5.550389665839868e-05 5.59497087021793e-05 5.639910154641439e-05 
5.685210395239939e-05 5.730874491244291e-05 5.776905365172224e-05 5.823305963015384e-05 
5.870079254427869e-05 5.9172282329162946e-05 5.9647559160313795e-05 6.0126653455610646e-05 
6.060959587725193e-05 6.109641733371747e-05 6.158714898174666e-05 6.208182222833249e-05 
6.258046873273154e-05 6.308312040849035e-05 6.358980942548773e-05 6.41005682119937e-05 
6.461542945674495e-05 6.513442611103688e-05 6.56575913908325e-05 6.618495877888832e-05 
6.671656202689715e-05 6.725243515764836e-05 6.77926124672052e-05 6.833712852709986e-05 
6.888601818654605e-05 6.943931657466932e-05 6.999705910275538e-05 7.05592814665164e-05 
7.112601964837555e-05 7.169730991976994e-05 7.227318884347191e-05 7.285369327592918e-05 
7.343886036962355e-05 7.402872757544877e-05 7.462333264510733e-05 7.52227136335267e-05 
7.582690890129466e-05 7.64359571171146e-05 7.704989726028024e-05 7.766876862317031e-05 
7.829261081376323e-05 7.892146375817218e-05 7.955536770320024e-05 8.019436321891625e-05 
8.083849120125136e-05 8.148779287461625e-05 8.21423097945397e-05 8.280208385032795e-05 
8.346715726774582e-05 8.413757261171898e-05 8.481337278905832e-05 8.549460105120585e-05 
8.618130099700288e-05 8.687351657548034e-05 8.757129208867152e-05 8.827467219444743e-05 
8.898370190937494e-05 8.969842661159782e-05 9.041889204374097e-05 9.114514431583796e-05 
9.187722990828212e-05 9.261519567480123e-05 9.335908884545626e-05 9.410895702966401e-05 
9.486484821924426e-05 9.562681079149117e-05 9.63948935122694e-05 9.716914553913527e-05 
9.794961642448271e-05 9.873635611871503e-05 9.952941497344085e-05 0.00010032884374469793 
0.00010113469359620015 0.00010194701610261342 0.00010276586325285506 0.00010359128745342256 
0.00010442334153174612 0.00010526207873957115 0.00010610755275636484 0.00010695981769275326 
0.00010781892809398287 0.00010868493894341295 0.00010955790566603308 0.00011043788413201188 
0.00011132493066027114 0.00011221910202209184 0.00011312045544474598 0.00011402904861516062 
0.00011494493968360845 0.00011586818726743085 0.00011679885045478792 0.00011773698880844173 
0.0001186826623695667 0.00011963593166159398 0.00012059685769408322 0.0001215655019666289 
0.0001225419264727947 0.00012352619370408266 0.00012451836665393118 0.00012551850882174814 
0.00012652668421697321 0.00012754295736317614 0.00012856739330218507 0.00012960005759824977 
0.00013064101634223767 0.0001316903361558637 0.00013274808419595413 0.0001338143281587445 
0.00013488913628421247 0.00013597257736044485 0.00013706472072804037 0.00013816563628454737 
0.0001392753944889372 0.00014039406636611376 0.000141521723511459 0.00014265843809541519 
0.00014380428286810368 0.000144959331163981 0.00014612365690653238 0.00014729733461300276 
0.000148480439399166 0.00014967304698413218 0.00015087523369519386 0.0001520870764727109 
0.00015330865287503466 0.00015454004108347193 0.00015578131990728831 0.00015703256878875225 
0.0001582938678082192 0.00015956529768925695 0.00016084693980381192 0.00016213887617741687 
0.00016344118949444066 0.00016475396310338018 0.00016607728102219444 0.00016741122794368193 
0.000168755889240901 0.00017011135097263363 0.0001714776998888933 0.00017285502343647704 
0.000174243409764562 0.0001756429477303471 0.0001770537269047399 0.00017847583757808904 
0.00017990937076596306 0.00018135441821497532 0.00018281107240865577 0.00018427942657337 
0.0001857595746842858 0.00018725161147138745 0.00018875563242553862 0.00019027173380459374 
0.00019180001263955862 0.00019334056674080027 0.00019489349470430705 0.00019645889591799872 
0.00019803687056808722 0.00019962751964548885 0.00020123094495228742 0.00020284724910824996 
0.00020447653555739407 0.00020611890857460868 0.00020777447327232742 0.00020944333560725614 
0.00021112560238715385 0.00021282138127766873 0.00021453078080922855 0.0002162539103839868 
0.00021799088028282446 0.00021974180167240795 0.0002215067866123038 0.0002232859480621507 
0.00022507939988888868 0.00022688725687404677 0.00022870963472108917 0.0002305466500628201 
0.00023239842046884847 0.00023426506445311236 0.00023614670148146388 0.00023804345197931512 
0.0002399554373393454 0.00024188277992927013 0.00024382560309967359 0.000245784031191901 
0.0002477581895460196 0.000249748204508837 0.00025175420344199093 0.000253776314730097 
0.0002558146677889688 0.00025786939307389687 0.0002599406220880018 0.0002620284873906464 
0.00026413312260592373 0.000266254662431205 0.0002683932426457641 0.0002705490001194639 
0.00027272207282151936 0.00027491259982932427 0.00027712072133735574 0.00027934657866614303 
0.000281590314271316 0.0002838520717527182 0.00028613199586360145 0.000288430232519886 
0.00029074692880950347 0.0002930822330018061 0.0002954362945570602 0.00029780926413600794 
0.00030020129360951343 0.00030261253606827826 0.00030504314583264393 0.000307493278462464 
0.00030996309076706423 0.0003124527408152738 0.000314962387945547 0.0003174921927761555 
0.0003200423172154731 0.0003226129244723333 0.0003252041790664791 0.0003278162468390878 
0.00033044929496338967 0.0003331034919553622 0.00033577900768452004 0.0003384760133847819 
0.0003411946816654343 0.00034393518652217414 0.0003466977033482488 0.00034948240894567683 
0.0003522894815365683 0.00035511910077452586 0.00035797144775614787 0.0003608467050326135 
0.0003637450566213711 0.00036666668801791036 0.00036961178620763935 0.00037258053967784605 
0.0003755731384297671 0.000378589773990743 0.00038163063942648056 0.00038469592935340424 
0.0003877858399511171 0.00039090056897495056 0.0003940403157686269 0.00039720528127701104 
0.000400395668058977 0.0004036116803003673 0.00040685352382706337 0.0004101214061181573 
0.0004134155363192312 0.00041673612525574237 0.0004200833854465161 0.0004234575311173471 
0.0004268587782147102 0.0004302873444195805 0.00043374344916136527 0.0004372273136319478 
0.00044073916079984343 0.0004442792154244695 0.00044784770407053036 0.0004514448551225174 
0.0004550708987993258 0.00045872606716898854 0.00046241059416352894 0.00046612471559393225 
0.0004698686691652379 0.0004736426944917522 0.00047744703311238445 0.0004812819285061048 
0.00048514762610752743 0.0004890443733226184 0.0004929724195445295 0.0004969320161695597 
0.0005009234166132446 0.0005049468763265749 0.0005090026528123458 0.0005130910056416366 
0.0005172121964704239 0.0005213664890563273 0.0005255541492754906 0.0005297754451395971 
0.0005340306468130227 0.0005383200266301275 0.0005426438591126833 0.0005470024209874453 
0.0005513959912038611 0.0005558248509519241 0.00056028928368017 0.0005647895751138172 
0.0005693260132730538 0.00057389888849147 0.0005785084934346411 0.0005831551231188564 
0.0005878390749300021 0.0005925606486425929 0.000597320146438958 0.0006021178729285809 
0.0006069541351675945 0.0006118292426784329 0.000616743507469641 0.0006216972440558425 
0.0006266907694778703 0.0006317244033230555 0.0006367984677456824 0.0006419132874876059 
0.0006470691898990357 0.0006522665049594857 0.0006575055652988938 0.0006627867062189102 
0.0006681102657143563 0.0006734765844948568 0.0006788860060066449 0.0006843388764545456 
0.0006898355448241263 0.0006953763629040414 0.0007009616853085366 0.0007065918695001552 
0.0007122672758126041 0.0007179882674738276 0.0007237552106292418 0.0007295684743651799 
0.0007354284307325027 0.0007413354547704205 0.0007472899245304853 0.0007532922211007969 
0.0007593427286303819 0.0007654418343537901 0.000771589928615867 0.0007777874048967465 
0.0007840346598370233 0.0007903320932631491 0.0007966801082130093 0.0008030791109617307 
0.0008095295110476705 0.0008160317212986388 0.0008225861578583082 0.0008291932402128587 
0.0008358533912178131 0.0008425670371251123 0.0008493346076103827 0.0008561565358004487 
0.0008630332583010395 0.0008699652152247461 0.000876952850219174 0.0008839966104953516 
0.0008910969468563373 0.0008982543137260853 0.0009054691691785148 0.0009127419749668409 
0.0009200731965531131 0.0009274633031380187 0.0009349127676908984 0.0009424220669800294 
0.0009499916816031262 0.000957622096018112 0.0009653137985741101 0.0009730672815427132 
0.0009808830411494743 0.0009887615776056795 0.0009967033951403478 0.0010047090020325155 
0.001012778910643753 0.0010209136374509694 0.0010291137030794535 0.001037379632336208 
0.0010457119542435233 0.0010541112020728493 0.0010625779133789097 0.0010711126300341227 
0.001079715898263263 0.0010883882686784378 0.0010971302963143103 0.0011059425406636366 
0.0011148255657130594 0.0011237799399792165 0.001132806236545117 0.0011419050330968214 
0.0011510769119604154 0.0011603224601392764 0.001169642269351644 0.001179036936068489 
0.0011885070615516875 0.0011980532518925033 0.001207676118050377 0.0012173762758920267 
0.0012271543462308652 0.0012370109548667325 0.001246946732625945 0.0012569623154016708 
0.0012670583441946267 0.001277235465154101 0.0012874943296193092 0.0012978355941610786 
0.0013082599206238699 0.0013187679761681348 0.0013293604333130152 0.0013400379699793831 
0.0013508012695332306 0.0013616510208294026 0.0013725879182556854 0.001383612661777248 
0.0013947259569814382 0.0014059285151229426 0.0014172210531693062 0.0014286042938468186 
0.0014400789656867686 0.0014516458030720703 0.0014633055462842646 0.0014750589415508976 
0.0014869067410932773 0.0014988497031746192 0.0015108885921485727 0.0015230241785081414 
0.0015352572389349946 0.0015475885563491752 0.001560018919959207 0.0015725491253126035 
0.0015851799743467846 0.0015979122754404 0.0016107468434650653 0.0016236844998375154 
0.0016367260725721738 0.0016498723963341473 0.0016631243124926435 0.0016764826691748203 
0.001689948321320065 0.0017035221307347113 0.0017172049661471945 0.0017309977032636517 
0.0017449012248239664 0.001758916420658264 0.0017730441877438616 0.0017872854302626753 
0.0018016410596590874 0.0018161119946982788 0.0018306991615250321 0.0018454034937230028 
0.0018602259323744709 0.0018751674261205695 0.001890228931221998 0.0019054114116202248 
0.0019207158389991767 0.0019361431928474303 0.0019516944605208978 0.0019673706373060187 
0.0019831727264834577 0.0019991017393923157 0.0020151586954948566 0.0020313446224417514 
0.0020476605561378495 0.0020641075408084765 0.002080686629066266 0.002097398881978525 
0.0021142453691351437 0.0021312271687170515 0.0021483453675652173 0.0021656010612502107 
0.002182995354142318 0.0022005293594822206 0.002218204199452246 0.002236021005248185 
0.0022539809171516897 0.0022720850846032524 0.00229033466627577 0.002308730830148699 
0.0023272747535828054 0.0023459676233955197 0.0023648106359368893 0.0023838049971661502 
0.002402951922728903 0.002422252638034917 0.0024417083783365655 0.002461320388807866 
0.002481089924624182 0.002501018251042555 0.002521106643482677 0.002541356387608522 
0.002561768779410625 0.0025823451252890294 0.0026030867421368946 0.0026239949574247785 
0.0026450711092855968 0.002666316546600262 0.0026877326290840144 0.002709320727373443 
0.0027310822231142065 0.0027530185090494613 0.0027751309891089937 0.002797421078499076 
0.0028198902037930374 0.0028425398030225662 0.002865371325769744 0.00288838623325982 
0.0029115859984547294 0.0029349721061473627 0.0029585460530565963 0.0029823093479230773 
0.0030062635116057898 0.0030304100771793847 0.0030547505900323014 0.0030792866079656705 
0.003104019701293015 0.003128951452940749 0.00315408345854949 0.003179417326576174 
0.003204954678397002 0.0032306971484112085 0.0032566463841456595 0.0032828040463603004 
0.003309171809154441 0.0033357513600739005 0.0033625444002190106 0.0033895526443534856 
0.003416777821014169 0.00344422167262166 0.003471885955591829 0.0034997724404482286 
0.0035278829119354082 0.0035562191691331387 0.0035847830255715525 0.0036135763093472113 
0.0036426008632401046 0.0036718585448315896 0.003701351226623274 0.0037310807961568595 
0.0037610491561349438 0.0037912582245427954 0.003821709934771103 0.0038524062357397156 
0.003883349092022373 0.00391454048397244 0.003945982407849646 0.003977676875947854 
0.004009625916723838 0.004041831574927115 0.0040742959117308014 0.004107021004863535 
0.004140008948742445 0.004173261854607202 0.00420678185065513 0.004240571082177418 
0.004274631711696416 0.00430896591910404 0.0043435759018012835 0.004378463874838854 
0.004413632071058932 0.0044490827412380805 0.004484818154231292 0.004520840597117195 
0.004557152375344431 0.0045937558128792 0.004630653252353999 0.0046678470552175486 
0.004705339601885927 0.004743133291894919 0.004781230544053584 0.004819633796599067 
0.0048583455073526365 0.004897368153876995 0.004936704233634842 0.004976356264148705 
0.005016326783162074 0.005056618348801808 0.005097233539741863 0.005138174955368321 
0.005179445215945755 0.005221046962784931 0.005262982858411847 0.005305255586738136 
0.005347867853232842 0.005390822385095563 0.005434121931431002 0.005477769263424903 
0.005521767174521413 0.005566118480601859 0.005610826020164969 0.005655892654508538 
0.005701321267912542 0.0057471147678237475 0.005793276085041781 0.005839808173906698 
0.0058867140124880726 0.005933996602775582 0.005981658970871142 0.006029704167182584 
0.006078135266618869 0.0061269553687868916 0.006176167598189854 0.006225775104427239 
0.006275781062396375 0.006326188672495643 0.006377001160829294 0.006428221779413925 
0.006479853806386611 0.0065319005462146995 0.006584365329907306 0.0066372515152284955 
0.0066905624869121735 0.006744301656878736 0.006798472464453399 0.006853078376586338 
0.006908122888074567 0.00696360952178561 0.007019541828882965 0.007075923389053377 
0.007132757810735941 0.007190048731353047 0.007247799817543167 0.007306014765395531 
0.0073646973006866725 0.00742385117911888 0.007483480186560564 0.007543588139288554 
0.007604178884232343 0.007665256299220288 0.0077268242932277955 0.007788886806627498 
0.007851447811441438 0.007914511311595276 0.007978081343174548 0.008042161974682976 
0.008106757307302846 0.008171871475157496 0.008237508645575894 0.00830367301935935 
0.008370368831050374 0.008437600349203675 0.008505371876659366 0.008573687750818338 
0.008642552343919852 0.008711970063321375 0.008781945351780642 0.008852482687740002 
0.00892358658561303 0.00899526159607346 0.00906751230634643 0.009140343340502056 
0.009213759359751385 0.009287765062744707 0.009362365185872277 0.009437564503567435 
0.009513367828612186 0.009589780012445204 0.009666805945472336 0.009744450557379589 
0.009822718817448626 0.009901615734874808 0.009981146359087782 0.010061315780074643 
0.010142129128705699 0.010223591577062844 0.010305708338770583 0.010388484669329692 
0.010471925866453582 0.01055603727040735 0.01064082426434956 0.010726292274676762 
0.010812446771370793 0.01089929326834885 0.01098683732381638 0.011075084540622815 
0.011164040566620154 0.011253711095024424 0.01134410186478005 0.011435218660927154 
0.011527067314971783 0.011619653705259152 0.01171298375734984 0.01180706344439904 
0.011901898787538836 0.011997495856263555 0.012093860768818231 0.012190999692590156 
0.012288918844503612 0.012387624491417741 0.01248712295052764 0.012587420589768654 
0.012688523828223927 0.012790439136535233 0.01289317303731709 0.012996732105574213 
0.01310112296912232 0.013206352309012312 0.013312426859957859 0.013419353410766426 
0.013527138804773766 0.013635789940281884 0.01374531377100054 0.013855717306492283 
0.01396700761262107 0.01407919181200448 0.014192277084469568 0.014306270667512366 
0.014421179856761104 0.014537012006443115 0.014653774529855517 0.014771474899839663 
0.014890120649259403 0.015009719371483201 0.015130278720870105 0.015251806413259622 
0.015374310226465548 0.015497798000773746 0.015622277639443918 0.015747757109215433 
0.015874244440817177 0.01600174772948156 0.016130275135462568 0.01625983488455806 
0.0163904352686362 0.016522084646166144 0.016654791442752993 0.016788564151677027 
0.016923411334437276 0.01705934162129947 0.017196363711848354 0.017334486375544505 
0.017473718452285545 0.0176140688529719 0.01775554656007713 0.01789816062822278 
0.018041920184757886 0.018186834430343135 0.018332912639539716 0.018480164161402874 
0.018628598420080272 0.018778224915415115 0.018929053223554204 0.019081092997560733 
0.019234353968032136 0.01938884594372283 0.019544578812172 0.019701562540336375 
0.019859807175228148 0.02001932284455796 0.020180119757383107 0.020342208204760886 
0.02050559856040726 0.020670301281360753 0.020836326908651736 0.021003686067977024 
0.021172389470379933 0.0213424479129358 0.021513872279443003 0.021686673541119507 
0.021860862757305043 0.022036451076168907 0.022213449735423434 0.022391870063043235 
0.022571723477990174 0.02275302149094421 0.022935775705040046 0.023119997816609762 
0.023305699615931392 0.023492892987983464 0.02368158991320569 0.023871802468265698 
0.024063542826831933 0.024256823260352795 0.024451656138842 0.02464805393167027 
0.024846029208363384 0.02504559463940664 0.025246762997055725 0.0254495471561542 
0.02565396009495747 0.02586001489596339 0.026067724746749555 0.02627710294081731 
0.026488162878442547 0.026700918067533323 0.026915382124494347 0.02713156877509848 
0.027349491855365147 0.02756916531244587 0.027790603205516882 0.02801381970667893 
0.028238829101864277 0.028465645791751013 0.02869428429268472 0.028924759237607494 
0.02915708537699448 0.0293912775797979 0.029627350834398675 0.02986532024956567 
0.03010520105542269 0.030347008604423187 0.030590758372332834 0.03083646595921998 
0.031084147090454057 0.03133381761771199 0.03158549351999277 0.031839190904640026 
0.03209492600837298 0.03235271519832556 0.032612574973093916 0.032874521963792334 
0.03313857293511763 0.033404744786422094 0.033673054552795074 0.033943519406153186 
0.03421615665633937 0.034490983752230704 0.034768018282855126 0.03504727797851716 
0.03532878071193265 0.035612544499372616 0.03589858750181633 0.036186928026113556 
0.036477584526156286 0.03677057560405973 0.03706592001135289 0.037363636650178646 
0.037663744574503485 0.037966262991337006 0.038271211261961154 0.03857860890316934 
0.03888847558851553 0.03920083114957333 0.039515695577205294 0.03983308902284224 
0.040153031799773045 0.04047554438444463 0.040800647417772506 0.04112836170646177 
0.04145870822433876 0.04179170811369337 0.042127382686632193 0.042465753426442474 
0.04280684198896705 0.04315067020399036 0.04349726007663551 0.04384663378877267 
0.044198813700438655 0.04455382235126803 0.04491168246193562 0.04527241693561067 
0.04563604885942261 0.04600260150593869 0.04637209833465341 0.046744562993489926 
0.047120019320313525 0.04749849134445731 0.047880003288259976 0.04826457956861618 
0.0486522447985391 0.04904302378873582 0.049436941549195056 0.04983402329078796 
0.05023429442688153 0.05063778057496508 0.051044507558289834 0.05145450140752156 
0.05186778836240648 0.052284394873450886 0.052704347603613644 0.05312767343001281 
0.053554399445645794 0.053984552961123235 0.05441816150641695 0.05485525283262186 
0.05529585491373201 0.05573999594843101 0.05618770436189666 0.05663900880762025 
0.057093938169240355 0.05755252156239139 0.05801478833656706 0.058480768076998695 
0.05895049060654873 0.059423985987619395 0.059901284524076705 0.0603824167631899 
0.060867413497586516 0.0613563057672231 0.06184912486137178 0.0623459023206228 
0.06284666993890312 0.06335145976551124 0.06386030410716838 0.06437323553008605 
0.06489028686205044 0.06541149119452325 0.0659368818847597 0.06646649255794326 
0.06700035710933781 0.06753850970645688 0.06808098479125034 0.06862781708230879 
0.06917904157708554 0.06973469355413638 0.07029480857537751 0.07085942248836148 
0.07142857142857142 0.07200229182173389 0.07258062038614964 0.07316359413504446 
0.07375125037893704 0.07434362672802779 0.07494076109460504 0.07554269169547231 
0.07614945705439324 0.07676109600455819 0.07737764769106847 0.07799915157344275 
0.07862564742814136 0.07925717535111311 0.07989377576036039 0.08053548939852692 
0.08118235733550432 0.08183442097106164 0.08249172203749384 0.08315430260229383 
0.0838222050708436 0.08449547218912944 0.08517414704647641 0.08585827307830733 
0.08654789406892148 0.08724305415429778 0.08794379782491914 0.08865016992861934 
0.08936221567345447 0.09007998063059489 0.09080351073724321 0.09153285229957288 
0.09226805199569317 0.09300915687863523 0.09375621437936489 0.09450927230981686 
0.09526837886595606 0.09603358263086084 0.09680493257783372 0.09758247807353422 
0.09836626888113982 0.0991563551635294 0.09995278748649505 0.10075561682197698 
0.10156489455132699 0.10238067246859568 0.10320300278384854 0.10403193812650609 
0.10486753154871356 0.10570983652873482 0.10655890697437649 0.10741479722643651 
0.10827756206218353 0.10914725669886116 0.1100239367972234 0.11090765846509539 
0.11179847826096588 0.1126964531976055 0.11360164074571713 0.11451409883761239 
0.115433885870921 0.11636106071232667 0.11729568270133615 0.1182378116540753 
0.11918750786711911 0.12014483212134898 0.12110984568584433 0.1220826103218023 
0.123063188286492 0.1240516423372375 0.12504803573543585 0.1260524322506042 
0.1270648961644628 0.12808549227504729 0.12911428590085752 0.1301513428850363 
0.13119672959958503 0.13225051294960985 0.13331276037760525 0.13438353986776877 
0.13546291995035373 0.13655096970605343 0.137647758770424 0.13875335733833954 
0.13986783616848622 0.14099126658788907 0.14212372049647895 0.14326527037169198 
0.14441598927311042 0.14557595084713612 0.14674522933170636 0.1479238995610427 
0.14911203697044267 0.15030971760110554 0.15151701810500096 0.15273401574977272 
0.15396078842368607 0.15519741464061035 0.15644397354504605 0.157700544917188 
0.1589672091780335 0.16024404739452705 0.16153114128475088 0.16282857322315272 
0.1641364262458201 0.16545478405579225 0.16678373102841962 0.16812335221676147 
0.16947373335703173 0.1708349608740837 0.17220712188694368 0.17359030421438432 
0.17498459638054722 0.1763900876206064 0.17780686788648156 0.17923502785259268 
0.1806746589216657 0.1821258532305798 0.18358870365626673 0.18506330382165243 
0.18654974810165142 0.1880481316292044 0.1895585503013692 0.19108110078545576 
0.1926158805252154 0.19416298774707466 0.19572252146642452 0.19729458149395468 
0.19887926844204415 0.2004766837311978 0.20208692959654015 0.20371010909435547 
0.20534632610868636 0.20699568535797958 0.20865829240179076 0.21033425364753744 
0.21202367635731217 0.21372666865474432 0.21544333953192293 0.21717379885636937 
0.2189181573780718 0.22067652673657026 0.22244901946810466 0.2242357490128141 
0.22603682972199998 0.22785237686544177 0.22968250663877715 0.2315273361709355 
0.23338698353163728 0.23526156773894763 0.23715120876689652 0.23905602755315378 
0.24097614600677292 0.24291168701598936 0.2448627744560889 0.24682953319733403 
0.2488120891129547 0.25081056908720706 0.25282510102349076 0.25485581385253825 
0.2569028375406628 0.2589663030980801 0.26104634258728926 0.26314308913152845 
0.2652566769232913 0.26738724123291885 0.2695349184172532 0.27169984592836816 
0.2738821623223625 0.27608200726823123 0.2782995215568009 0.28053484710974375 
0.28278812698865724 0.2850595054042237 0.287349127725436 0.28965714048890545 
0.2919836914082354 0.29432892938348 0.2966930045106691 0.2990760680914189 
0.30147827264261073 0.30389977190615713 0.3063407208588363 0.30880127572221555 
0.3112815939726448 0.31378183435133994 0.31630215687453733 0.31884272284374005 
0.321403694856036 0.32398523681450936 0.3265875139387255 0.32921069277530973 
0.3318549412086019 0.3345204284714053 0.3372073251558135 0.3399158032241326 
0.3426460360198823 0.3453981982788947 0.3481724661404924 0.35096901715876694 
0.35378803031393663 0.35662968602380696 0.35949416615531204 0.36238165403615935 
0.36529233446655746 0.3682263937310489 0.3711840196104266 0.37416540139375776 
0.3771707298904929 0.3802001974426829 0.3832539979372838 0.38633232681857105 
0.38943538110064235 0.3925633593800324 0.3957164618484173 0.3988948903054327 
0.4020988481715833 0.4053285405012677 0.40858417399589586 0.41186595701712425 
0.4151740996001848 0.4185088134673336 0.42187031204139486 0.42525881045942626 
0.42867452558648156 0.4321176760294964 0.4355884821512729 0.43908716608458903 
0.4426139517464091 0.4461690648522211 0.44975273293047546 0.45336518533715403 
0.45700665327044243 0.4606773697855329 0.46437756980953365 0.46810749015651093 
0.47186736954263847 0.475657448601482 0.47947796989939323 0.48332917795104097 
0.4872113192350535 0.4911246422097998 0.4950693973292841 0.49904583705918254 
0.5030542158929932 0.5070947903683314 0.511167819083341 0.5152735627132518 
0.5194122840270557 0.5235842479043314 0.5277897213521893 0.5320289735223672 
0.5363022757284492 0.5406099014632371 0.5449521264162461 0.5493292284913575 
0.5537414878245962 0.5581891868020674 0.5626726100780219 0.5671920445930818 
0.5717477795925967 0.5763401066451633 0.580969319661279 0.5856357149121584 
0.5903395910486886 0.59508124912055 0.5998609925954755 0.6046791273786812 
0.6095359618324359 0.614431806795804 0.6193669756045326 0.6243417841111121 
0.6293565507049825 0.6344115963329201 0.6395072445195682 0.6446438213881522 
0.6498216556813429 0.6550410787823046 0.6603024247358948 0.6656060302700533 
0.6709522348173417 0.6763413805366774 0.6817738123352269 0.6872498778904773 
0.6927699276724957 0.6983343149663499 0.7039433958947284 0.709597529440723 
0.7152970774708126 0.7210424047580144 0.7268338790052384 0.7326718708688106 
0.7385567539822055 0.7444889049799486 0.7504687035217311 0.7564965323166982 
0.7625727771479529 0.7686978268972359 0.7748720735698243 0.7810959123196101 
0.7873697414744003 0.7936939625613998 0.8000689803329192 0.8064952027922694 
0.8129730412198839 0.8195029101996305 0.8260852276453556 0.8327204148276196 
0.8394088964006698 0.846151100429607 0.8529474584177935 0.8597984053344572 
0.8667043796425423 0.8736658233267586 0.8806831819218813 0.8877569045412528 
0.894887443905538 0.9020752563716872 0.9093208019621547 0.9166245443943284 
0.9239869511102202 0.9314084933063695 0.9388896459640136 0.9464308878794727 
0.954032701694807 0.9616955739286919 0.9694199950075693 0.9772064592970215 
0.9850554651334243 0.9929675148558269 1.0009431148381158 1.0089827755214085 
1.0170870114467365 1.0252563412879616 1.033491287884986 1.041792378277199 